Paper Link,Material,Formulation,Elastic Modulus,Yield Stress (Pa),Extensional Strain-to-Break (%),"Type (P = physical, C = covalent, S=Single molecule)","Method (A = Approximated, V = Value Provided)",Notes,
https://www-sciencedirect-com.stanford.idm.oclc.org/science/article/pii/S0144861719312469,CMCD-2%/THEOS-0.73 mol/L,2 wt%-0.73 mol/L CMCD-THEOS,22.2,,14,P,V,,
https://www-sciencedirect-com.stanford.idm.oclc.org/science/article/pii/S0144861719312469,CMCD-1%/THEOS-1.10 mol/L,1 wt%-1.10 mol/L CMCD-THEOS,30.9,,14,P,V,,
https://www-sciencedirect-com.stanford.idm.oclc.org/science/article/pii/S0144861719312469,CMCD-1%/THEOS-0.73 mol/L,1 wt%-0.73 mol/L CMCD-THEOS,23.2,,14.1,P,V,,
https://www-sciencedirect-com.stanford.idm.oclc.org/science/article/pii/S0144861719312469,CMCD-1.5%/THEOS-0.73 mol/L,1.5 wt%-0.73 mol/L CMCD-THEOS,23.9,,14.1,P,V,,
https://www-sciencedirect-com.stanford.idm.oclc.org/science/article/pii/S0144861719312469,CMCD-0.5%/THEOS-0.73 mol/L,0.5 wt%-0.73 mol/L CMCD-THEOS,14.6,,14.3,P,V,,
https://www-sciencedirect-com.stanford.idm.oclc.org/science/article/pii/S0144861719312469,CMCD-0.2%/THEOS-0.73 mol/L,0.2 wt%-0.73 mol/L CMCD-THEOS,6.3,,17,P,V,,
https://www-sciencedirect-com.stanford.idm.oclc.org/science/article/pii/S0144861719312469,CMCD-1%/THEOS-0.54 mol/L,1 wt%-0.54 mol/L CMCD-THEOS,11.2,,19.3,P,V,,
https://www-sciencedirect-com.stanford.idm.oclc.org/science/article/pii/S0144861719312469,CMCD-1%/THEOS-0.36 mol/L,1 wt%-0.36 mol/L CMCD-THEOS,2.9,,25.5,P,V,,
https://www-sciencedirect-com.stanford.idm.oclc.org/science/article/pii/S0144861719312469,CMCD-1%/THEOS-0.18 mol/L,1 wt%-0.18 mol/L CMCD-THEOS,2.3,,28.9,P,V,,
https://www-sciencedirect-com.stanford.idm.oclc.org/science/article/pii/S0268005X19312597,BSG:WPI,1:0 BSG:WPI at 25ºC,,0.61,,P,V,,
https://www-sciencedirect-com.stanford.idm.oclc.org/science/article/pii/S0268005X19312597,BSG:WPI,1:0 BSG:WPI at 80ºC,,0.42,,P,V,,
https://www-sciencedirect-com.stanford.idm.oclc.org/science/article/pii/S0268005X19312597,BSG:WPI,1:4 BSG:WPI at 25ºC,,0.36,,P,V,,
https://www-sciencedirect-com.stanford.idm.oclc.org/science/article/pii/S0268005X19312597,BSG:WPI,1:4 BSG:WPI at 80ºC,,0.23,,P,V,,
https://www-sciencedirect-com.stanford.idm.oclc.org/science/article/pii/S0268005X19312597,BSG:WPI,1:9 BSG:WPI at 25ºC,,0.12,,P,V,,
https://www-sciencedirect-com.stanford.idm.oclc.org/science/article/pii/S0268005X19312597,BSG:WPI,1:9 BSG:WPI at 80ºC,,0.13,,P,V,,
https://www-sciencedirect-com.stanford.idm.oclc.org/science/article/pii/S0377025718301459,LCC Gel,0.1-0.029 wt% carbopol-NaOH,,5.4,,P,V,,
https://www-sciencedirect-com.stanford.idm.oclc.org/science/article/pii/S0377025718301459,MCC Gel,0.12-0.035 wt% carbopol-NaOH,,8.4,,P,V,,
https://www-sciencedirect-com.stanford.idm.oclc.org/science/article/pii/S0377025718301459,HCC,0.15-0.043 wt% carbopol-NaOH,,13.7,,P,V,,
https://www-sciencedirect-com.stanford.idm.oclc.org/science/article/pii/S1226086X16303963,,0.65-0.65 wt% Chitosan-Xantham,,,,P,V,,
https://www-sciencedirect-com.stanford.idm.oclc.org/science/article/pii/S0014305718314691,CNF 1%,1 wt% cellulose nanofibrils,,0.1,,P,V,critical stress,CaBER
https://www-sciencedirect-com.stanford.idm.oclc.org/science/article/pii/S0014305718314691,CNF 1.5%,1.5 wt% cellulose nanofibrils,,0.6,,P,V,critical stress,CaBER
https://www-sciencedirect-com.stanford.idm.oclc.org/science/article/pii/S0014305718314691,CNF 2%,2 wt% cellulose nanofibrils,,1.2,,P,V,critical stress,CaBER
https://www-sciencedirect-com.stanford.idm.oclc.org/science/article/pii/S0014305718314691,Guar Gum,--,,3,,P,V,critical stress,CaBER
https://journals-aps-org.stanford.idm.oclc.org/prmaterials/pdf/10.1103/PhysRevMaterials.4.015602,"Unentangled, faster deformation",,,,39,P,,,
https://journals-aps-org.stanford.idm.oclc.org/prmaterials/pdf/10.1103/PhysRevMaterials.4.015602,"Entangled, slow extension",,,,2000,P,,,
https://journals-aps-org.stanford.idm.oclc.org/prmaterials/pdf/10.1103/PhysRevMaterials.4.015602,"entangled, fast extension",,,,1040,P,,,